 argument  1 = water.nw
                                         
                                         


             Northwest Computational Chemistry Package (NWChem) 7.2.2
             --------------------------------------------------------


                    Environmental Molecular Sciences Laboratory
                       Pacific Northwest National Laboratory
                                Richland, WA 99352

                              Copyright (c) 1994-2022
                       Pacific Northwest National Laboratory
                            Battelle Memorial Institute

             NWChem is an open-source computational chemistry package
                        distributed under the terms of the
                      Educational Community License (ECL) 2.0
             A copy of the license is included with this distribution
                              in the LICENSE.TXT file

                                  ACKNOWLEDGMENT
                                  --------------

            This software and its documentation were developed at the
            EMSL at Pacific Northwest National Laboratory, a multiprogram
            national laboratory, operated for the U.S. Department of Energy
            by Battelle under Contract Number DE-AC05-76RL01830. Support
            for this work was provided by the Department of Energy Office
            of Biological and Environmental Research, Office of Basic
            Energy Sciences, and the Office of Advanced Scientific Computing.


           Job information
           ---------------

    hostname        = chaitali-VirtualBox
    program         = nwchem
    date            = Fri Jul 12 10:18:34 2024

    compiled        = Mon_Apr_01_11:12:32_2024
    source          = /build/nwchem-qbYJLs/nwchem-7.2.2/build-openmpi
    nwchem branch   = 7.2.2
    nwchem revision = N/A
    ga revision     = N/A
    use scalapack   = T
    input           = water.nw
    prefix          = h2o.
    data base       = ./h2o.db
    status          = startup
    nproc           =        1
    time left       =     -1s



           Memory information
           ------------------

    heap     =   16777210 doubles =    128.0 Mbytes
    stack    =   16777215 doubles =    128.0 Mbytes
    global   =   33554432 doubles =    256.0 Mbytes (distinct from heap & stack)
    total    =   67108857 doubles =    512.0 Mbytes
    verify   = yes
    hardfail = no 


           Directory information
           ---------------------

  0 permanent = .
  0 scratch   = .




                                NWChem Input Module
                                -------------------



 Scaling coordinates for geometry "geometry" by  1.889725989
 (inverse scale =  0.529177249)

 C2V symmetry detected

          ------
          auto-z
          ------
  no constraints, skipping    0.0000000000000000     
  no constraints, skipping    0.0000000000000000     


                             Geometry "geometry" -> ""
                             -------------------------

 Output coordinates in angstroms (scale by  1.889725989 to convert to a.u.)

  No.       Tag          Charge          X              Y              Z
 ---- ---------------- ---------- -------------- -------------- --------------
    1 O                    8.0000     0.00000000     0.00000000     0.11779020
    2 H                    1.0000    -0.75545300     0.00000000    -0.47116080
    3 H                    1.0000     0.75545300     0.00000000    -0.47116080

      Atomic Mass 
      ----------- 

      O                 15.994910
      H                  1.007825


 Effective nuclear repulsion energy (a.u.)       9.1891938906

            Nuclear Dipole moment (a.u.) 
            ----------------------------
        X                 Y               Z
 ---------------- ---------------- ----------------
     0.0000000000     0.0000000000     0.0000000000

      Symmetry information
      --------------------

 Group name             C2v       
 Group number             16
 Group order               4
 No. of unique centers     2

      Symmetry unique atoms

     1    2



                                Z-matrix (autoz)
                                -------- 

 Units are Angstrom for bonds and degrees for angles

      Type          Name      I     J     K     L     M      Value
      ----------- --------  ----- ----- ----- ----- ----- ----------
    1 Stretch                  1     2                       0.95790
    2 Stretch                  1     3                       0.95790
    3 Bend                     2     1     3               104.12006


            XYZ format geometry
            -------------------
     3
 geometry
 O                     0.00000000     0.00000000     0.11779020
 H                    -0.75545300     0.00000000    -0.47116080
 H                     0.75545300     0.00000000    -0.47116080

 ==============================================================================
                                internuclear distances
 ------------------------------------------------------------------------------
       center one      |      center two      | atomic units |  angstroms
 ------------------------------------------------------------------------------
    2 H                |   1 O                |     1.81017  |     0.95790
    3 H                |   1 O                |     1.81017  |     0.95790
 ------------------------------------------------------------------------------
                         number of included internuclear distances:          2
 ==============================================================================



 ==============================================================================
                                 internuclear angles
 ------------------------------------------------------------------------------
        center 1       |       center 2       |       center 3       |  degrees
 ------------------------------------------------------------------------------
    2 H                |   1 O                |   3 H                |   104.12
 ------------------------------------------------------------------------------
                            number of included internuclear angles:          1
 ==============================================================================





 Summary of "ao basis" -> "" (cartesian)
 ------------------------------------------------------------------------------
       Tag                 Description            Shells   Functions and Types
 ---------------- ------------------------------  ------  ---------------------
 *                           6-31G                    on all atoms 




                           NWChem Geometry Optimization
                           ----------------------------


  no constraints, skipping    0.0000000000000000     
 maximum gradient threshold         (gmax) =   0.000450
 rms gradient threshold             (grms) =   0.000300
 maximum cartesian step threshold   (xmax) =   0.001800
 rms cartesian step threshold       (xrms) =   0.001200
 fixed trust radius                (trust) =   0.300000
 maximum step size to saddle      (sadstp) =   0.100000
 energy precision                  (eprec) =   1.0D-07
 maximum number of steps          (nptopt) =   40
 initial hessian option           (inhess) =    0
 line search option               (linopt) =    1
 hessian update option            (modupd) =    1
 saddle point option              (modsad) =    0
 initial eigen-mode to follow     (moddir) =    0
 initial variable to follow       (vardir) =    0
 follow first negative mode     (firstneg) =    T
 apply conjugacy                    (opcg) =    F
 source of zmatrix                         =   autoz   


          -------------------
          Energy Minimization
          -------------------


 Names of Z-matrix variables 
    1              2              3         

 Variables with the same non-blank name are constrained to be equal


 Using diagonal initial Hessian 
 Scaling for Hessian diagonals: bonds = 1.00  angles = 0.25  torsions = 0.10

          --------
          Step   0
          --------


                         Geometry "geometry" -> "geometry"
                         ---------------------------------

 Output coordinates in angstroms (scale by  1.889725989 to convert to a.u.)

  No.       Tag          Charge          X              Y              Z
 ---- ---------------- ---------- -------------- -------------- --------------
    1 O                    8.0000     0.00000000     0.00000000     0.11779020
    2 H                    1.0000    -0.75545300     0.00000000    -0.47116080
    3 H                    1.0000     0.75545300     0.00000000    -0.47116080

      Atomic Mass 
      ----------- 

      O                 15.994910
      H                  1.007825


 Effective nuclear repulsion energy (a.u.)       9.1891938906

            Nuclear Dipole moment (a.u.) 
            ----------------------------
        X                 Y               Z
 ---------------- ---------------- ----------------
     0.0000000000     0.0000000000     0.0000000000

      Symmetry information
      --------------------

 Group name             C2v       
 Group number             16
 Group order               4
 No. of unique centers     2

      Symmetry unique atoms

     1    2

                      Basis "ao basis" -> "ao basis" (cartesian)
                      -----
  O (Oxygen)
  ----------
            Exponent  Coefficients 
       -------------- ---------------------------------------------------------
  1 S  5.48467170E+03  0.001831
  1 S  8.25234950E+02  0.013950
  1 S  1.88046960E+02  0.068445
  1 S  5.29645000E+01  0.232714
  1 S  1.68975700E+01  0.470193
  1 S  5.79963530E+00  0.358521

  2 S  1.55396160E+01 -0.110778
  2 S  3.59993360E+00 -0.148026
  2 S  1.01376180E+00  1.130767

  3 P  1.55396160E+01  0.070874
  3 P  3.59993360E+00  0.339753
  3 P  1.01376180E+00  0.727159

  4 S  2.70005800E-01  1.000000

  5 P  2.70005800E-01  1.000000

  H (Hydrogen)
  ------------
            Exponent  Coefficients 
       -------------- ---------------------------------------------------------
  1 S  1.87311370E+01  0.033495
  1 S  2.82539370E+00  0.234727
  1 S  6.40121700E-01  0.813757

  2 S  1.61277800E-01  1.000000



 Summary of "ao basis" -> "ao basis" (cartesian)
 ------------------------------------------------------------------------------
       Tag                 Description            Shells   Functions and Types
 ---------------- ------------------------------  ------  ---------------------
 O                           6-31G                   5        9   3s2p
 H                           6-31G                   2        2   2s


                                 NWChem SCF Module
                                 -----------------



  ao basis        = "ao basis"
  functions       =    13
  atoms           =     3
  closed shells   =     5
  open shells     =     0
  charge          =   0.00
  wavefunction    = RHF 
  input vectors   = atomic
  output vectors  = ./h2o.movecs
  use symmetry    = T
  symmetry adapt  = T


 Summary of "ao basis" -> "ao basis" (cartesian)
 ------------------------------------------------------------------------------
       Tag                 Description            Shells   Functions and Types
 ---------------- ------------------------------  ------  ---------------------
 O                           6-31G                   5        9   3s2p
 H                           6-31G                   2        2   2s


      Symmetry analysis of basis
      --------------------------

        a1          7
        a2          0
        b1          4
        b2          2


 Forming initial guess at       0.0s


      Superposition of Atomic Density Guess
      -------------------------------------

 Sum of atomic energies:         -75.75081731

      Non-variational initial energy
      ------------------------------

 Total energy =     -75.918555
 1-e energy   =    -121.725214
 2-e energy   =      36.617466
 HOMO         =      -0.468827
 LUMO         =       0.116261


      Symmetry analysis of molecular orbitals - initial
      -------------------------------------------------

  Numbering of irreducible representations: 

     1 a1          2 a2          3 b1          4 b2      

  Orbital symmetries:

     1 a1          2 a1          3 b1          4 a1          5 b2      
     6 a1          7 b1          8 b1          9 b2         10 a1      
    11 a1         12 b1         13 a1      


 Starting SCF solution at       0.1s



 ----------------------------------------------
         Quadratically convergent ROHF

 Convergence threshold     :          1.000E-04
 Maximum no. of iterations :           30
 Final Fock-matrix accuracy:          1.000E-07
 ----------------------------------------------


 #quartets = 6.670D+02 #integrals = 1.513D+03 #direct =  0.0% #cached =100.0%


 Integral file          = ./h2o.aoints.0
 Record size in doubles =  65536        No. of integs per rec  =  43688
 Max. records in memory =      3        Max. records in file   =  26840
 No. of bits per label  =      8        No. of bits per value  =     64


              iter       energy          gnorm     gmax       time
             ----- ------------------- --------- --------- --------
                 1      -75.9470390887  8.06D-01  3.50D-01      0.0
                 2      -75.9808586700  1.98D-01  1.16D-01      0.1
                 3      -75.9837673838  2.45D-02  1.54D-02      0.1
                 4      -75.9838311175  2.10D-04  1.10D-04      0.1
                 5      -75.9838311215  4.55D-06  1.78D-06      0.1


       Final RHF  results 
       ------------------ 

         Total SCF energy =    -75.983831121467
      One-electron energy =   -122.967533924607
      Two-electron energy =     37.794508912574
 Nuclear repulsion energy =      9.189193890566

        Time for solution =      0.0s



       Symmetry analysis of molecular orbitals - final
       -----------------------------------------------

  Numbering of irreducible representations: 

     1 a1          2 a2          3 b1          4 b2      

  Orbital symmetries:

     1 a1          2 a1          3 b1          4 a1          5 b2      
     6 a1          7 b1          8 b1          9 b2         10 a1      
    11 a1         12 b1         13 a1      

             Final eigenvalues
             -----------------

              1      
    1  -20.5608
    2   -1.3565
    3   -0.7091
    4   -0.5613
    5   -0.5015
    6    0.2035
    7    0.2996
    8    1.0552
    9    1.1643
   10    1.1879
   11    1.2167
   12    1.3790
   13    1.6974

                       ROHF Final Molecular Orbital Analysis
                       -------------------------------------

 Vector    2  Occ=2.000000D+00  E=-1.356475D+00  Symmetry=a1
              MO Center= -4.3D-19,  2.0D-17, -7.4D-02, r^2= 5.0D-01
   Bfn.  Coefficient  Atom+Function         Bfn.  Coefficient  Atom+Function  
  ----- ------------  ---------------      ----- ------------  ---------------
     6      0.479287  1 O  s                  2      0.469004  1 O  s          
     1     -0.212400  1 O  s          

 Vector    3  Occ=2.000000D+00  E=-7.091381D-01  Symmetry=b1
              MO Center=  2.6D-16, -1.1D-31, -1.0D-01, r^2= 7.9D-01
   Bfn.  Coefficient  Atom+Function         Bfn.  Coefficient  Atom+Function  
  ----- ------------  ---------------      ----- ------------  ---------------
     3      0.505929  1 O  px                 7      0.269832  1 O  px         
    10     -0.263118  2 H  s                 12      0.263118  3 H  s          

 Vector    4  Occ=2.000000D+00  E=-5.612928D-01  Symmetry=a1
              MO Center=  1.7D-18,  5.8D-33,  2.1D-01, r^2= 6.8D-01
   Bfn.  Coefficient  Atom+Function         Bfn.  Coefficient  Atom+Function  
  ----- ------------  ---------------      ----- ------------  ---------------
     5      0.550052  1 O  pz                 9      0.401891  1 O  pz         
     6      0.307626  1 O  s                  2      0.181400  1 O  s          

 Vector    5  Occ=2.000000D+00  E=-5.015389D-01  Symmetry=b2
              MO Center=  1.2D-32, -1.3D-17,  1.2D-01, r^2= 6.0D-01
   Bfn.  Coefficient  Atom+Function         Bfn.  Coefficient  Atom+Function  
  ----- ------------  ---------------      ----- ------------  ---------------
     4      0.641874  1 O  py                 8      0.509727  1 O  py         

 Vector    6  Occ=0.000000D+00  E= 2.035169D-01  Symmetry=a1
              MO Center= -2.8D-16, -1.8D-19, -6.2D-01, r^2= 2.5D+00
   Bfn.  Coefficient  Atom+Function         Bfn.  Coefficient  Atom+Function  
  ----- ------------  ---------------      ----- ------------  ---------------
     6      1.179826  1 O  s                 11     -0.992075  2 H  s          
    13     -0.992075  3 H  s                  9     -0.476660  1 O  pz         
     5     -0.231283  1 O  pz         

 Vector    7  Occ=0.000000D+00  E= 2.996291D-01  Symmetry=b1
              MO Center=  2.2D-16,  4.9D-32, -6.1D-01, r^2= 2.7D+00
   Bfn.  Coefficient  Atom+Function         Bfn.  Coefficient  Atom+Function  
  ----- ------------  ---------------      ----- ------------  ---------------
    11      1.385990  2 H  s                 13     -1.385990  3 H  s          
     7      0.822919  1 O  px                 3      0.337873  1 O  px         

 Vector    8  Occ=0.000000D+00  E= 1.055162D+00  Symmetry=b1
              MO Center=  2.8D-17, -2.5D-32, -1.1D-01, r^2= 1.6D+00
   Bfn.  Coefficient  Atom+Function         Bfn.  Coefficient  Atom+Function  
  ----- ------------  ---------------      ----- ------------  ---------------
    10      0.974147  2 H  s                 12     -0.974147  3 H  s          
     7      0.754891  1 O  px                11     -0.487412  2 H  s          
    13      0.487412  3 H  s          

 Vector    9  Occ=0.000000D+00  E= 1.164307D+00  Symmetry=b2
              MO Center= -1.3D-30, -3.7D-15,  1.2D-01, r^2= 1.1D+00
   Bfn.  Coefficient  Atom+Function         Bfn.  Coefficient  Atom+Function  
  ----- ------------  ---------------      ----- ------------  ---------------
     8     -1.037413  1 O  py                 4      0.961272  1 O  py         

 Vector   10  Occ=0.000000D+00  E= 1.187868D+00  Symmetry=a1
              MO Center= -2.4D-17,  2.0D-15, -2.8D-01, r^2= 1.2D+00
   Bfn.  Coefficient  Atom+Function         Bfn.  Coefficient  Atom+Function  
  ----- ------------  ---------------      ----- ------------  ---------------
    10      0.799190  2 H  s                 12      0.799190  3 H  s          
     5      0.726979  1 O  pz                11     -0.539804  2 H  s          
    13     -0.539804  3 H  s                  9     -0.312100  1 O  pz         
     2     -0.230577  1 O  s                  6      0.172502  1 O  s          

 Vector   11  Occ=0.000000D+00  E= 1.216678D+00  Symmetry=a1
              MO Center= -1.1D-16,  1.3D-15,  2.4D-01, r^2= 1.3D+00
   Bfn.  Coefficient  Atom+Function         Bfn.  Coefficient  Atom+Function  
  ----- ------------  ---------------      ----- ------------  ---------------
     9      1.163840  1 O  pz                 5     -0.662185  1 O  pz         
    10      0.595556  2 H  s                 12      0.595556  3 H  s          
     2     -0.465472  1 O  s          

 Vector   12  Occ=0.000000D+00  E= 1.378976D+00  Symmetry=b1
              MO Center= -2.1D-17, -1.5D-33,  6.4D-02, r^2= 1.4D+00
   Bfn.  Coefficient  Atom+Function         Bfn.  Coefficient  Atom+Function  
  ----- ------------  ---------------      ----- ------------  ---------------
     7      1.535355  1 O  px                 3     -1.034514  1 O  px         
    11      0.910923  2 H  s                 13     -0.910923  3 H  s          

 Vector   13  Occ=0.000000D+00  E= 1.697366D+00  Symmetry=a1
              MO Center= -5.6D-17,  3.5D-16, -2.1D-01, r^2= 1.2D+00
   Bfn.  Coefficient  Atom+Function         Bfn.  Coefficient  Atom+Function  
  ----- ------------  ---------------      ----- ------------  ---------------
     6      2.761218  1 O  s                  2     -1.671413  1 O  s          
     9     -0.872156  1 O  pz                11     -0.611715  2 H  s          
    13     -0.611715  3 H  s                 10     -0.473959  2 H  s          
    12     -0.473959  3 H  s                  5      0.198868  1 O  pz         


 center of mass
 --------------
 x =   0.00000000 y =   0.00000000 z =   0.09803484

 moments of inertia (a.u.)
 ------------------
           2.217306375410           0.000000000000           0.000000000000
           0.000000000000           6.325280456413           0.000000000000
           0.000000000000           0.000000000000           4.107974081003

  Mulliken analysis of the total density
  --------------------------------------

    Atom       Charge   Shell Charges
 -----------   ------   -------------------------------------------------------
    1 O    8     8.79   2.00  0.90  2.89  0.99  2.00
    2 H    1     0.60   0.51  0.10
    3 H    1     0.60   0.51  0.10

       Multipole analysis of the density wrt the origin
       ------------------------------------------------

     L   x y z        total         open         nuclear
     -   - - -        -----         ----         -------
     0   0 0 0     -0.000000      0.000000     10.000000

     1   1 0 0     -0.000000      0.000000      0.000000
     1   0 1 0     -0.000000      0.000000      0.000000
     1   0 0 1     -1.037543      0.000000      0.000000

     2   2 0 0     -3.142876      0.000000      4.076079
     2   1 1 0      0.000000      0.000000      0.000000
     2   1 0 1     -0.000000      0.000000      0.000000
     2   0 2 0     -5.358186      0.000000      0.000000
     2   0 1 1      0.000000      0.000000      0.000000
     2   0 0 2     -4.560494      0.000000      1.981874


 Parallel integral file used       1 records with       0 large values

                              NWChem Gradients Module
                              -----------------------



  wavefunction    =   RHF     

  Using symmetry


                         RHF ENERGY GRADIENTS

    atom               coordinates                        gradient
                 x          y          z           x          y          z
   1 O       0.000000   0.000000   0.222591    0.000000   0.000000   0.024698
   2 H      -1.427599   0.000000  -0.890365    0.004975   0.000000  -0.012349
   3 H       1.427599   0.000000  -0.890365   -0.004975   0.000000  -0.012349

                 ----------------------------------------
                 |  Time  |  1-e(secs)   |  2-e(secs)   |
                 ----------------------------------------
                 |  CPU   |       0.00   |       0.01   |
                 ----------------------------------------
                 |  WALL  |       0.00   |       0.01   |
                 ----------------------------------------
  no constraints, skipping    0.0000000000000000     

@ Step       Energy      Delta E   Gmax     Grms     Xrms     Xmax   Walltime
@ ---- ---------------- -------- -------- -------- -------- -------- --------
@    0     -75.98383112  0.0D+00  0.01226  0.00769  0.00000  0.00000      0.4
                                                                    



                                Z-matrix (autoz)
                                -------- 

 Units are Angstrom for bonds and degrees for angles

      Type          Name      I     J     K     L     M      Value     Gradient
      ----------- --------  ----- ----- ----- ----- ----- ---------- ----------
    1 Stretch                  1     2                       0.95790    0.00367
    2 Stretch                  1     3                       0.95790    0.00367
    3 Bend                     2     1     3               104.12006   -0.01226

  no constraints, skipping    0.0000000000000000     
  no constraints, skipping    0.0000000000000000     
  no constraints, skipping    0.0000000000000000     
  no constraints, skipping    0.0000000000000000     
                                 NWChem SCF Module
                                 -----------------



  ao basis        = "ao basis"
  functions       =    13
  atoms           =     3
  closed shells   =     5
  open shells     =     0
  charge          =   0.00
  wavefunction    = RHF 
  input vectors   = ./h2o.movecs
  output vectors  = ./h2o.movecs
  use symmetry    = T
  symmetry adapt  = T


 Summary of "ao basis" -> "ao basis" (cartesian)
 ------------------------------------------------------------------------------
       Tag                 Description            Shells   Functions and Types
 ---------------- ------------------------------  ------  ---------------------
 O                           6-31G                   5        9   3s2p
 H                           6-31G                   2        2   2s


      Symmetry analysis of basis
      --------------------------

        a1          7
        a2          0
        b1          4
        b2          2


 Forming initial guess at       0.4s


 Loading old vectors from job with title :




      Symmetry analysis of molecular orbitals - initial
      -------------------------------------------------

  Numbering of irreducible representations: 

     1 a1          2 a2          3 b1          4 b2      

  Orbital symmetries:

     1 a1          2 a1          3 b1          4 a1          5 b2      
     6 a1          7 b1          8 b1          9 b2         10 a1      
    11 a1         12 b1         13 a1      


 Starting SCF solution at       0.4s



 ----------------------------------------------
         Quadratically convergent ROHF

 Convergence threshold     :          1.000E-04
 Maximum no. of iterations :           30
 Final Fock-matrix accuracy:          1.000E-07
 ----------------------------------------------


 #quartets = 6.670D+02 #integrals = 1.513D+03 #direct =  0.0% #cached =100.0%


 Integral file          = ./h2o.aoints.0
 Record size in doubles =  65536        No. of integs per rec  =  43688
 Max. records in memory =      3        Max. records in file   =  26840
 No. of bits per label  =      8        No. of bits per value  =     64


              iter       energy          gnorm     gmax       time
             ----- ------------------- --------- --------- --------
                 1      -75.9846541800  8.07D-02  5.02D-02      0.1
                 2      -75.9853347574  5.00D-03  3.59D-03      0.1
                 3      -75.9853395353  1.69D-05  8.76D-06      0.1


       Final RHF  results 
       ------------------ 

         Total SCF energy =    -75.985339535324
      One-electron energy =   -123.069265905438
      Two-electron energy =     37.859543350153
 Nuclear repulsion energy =      9.224383019962

        Time for solution =      0.0s



       Symmetry analysis of molecular orbitals - final
       -----------------------------------------------

  Numbering of irreducible representations: 

     1 a1          2 a2          3 b1          4 b2      

  Orbital symmetries:

     1 a1          2 a1          3 b1          4 a1          5 b2      
     6 a1          7 b1          8 b1          9 a1         10 b2      
    11 a1         12 b1         13 a1      

             Final eigenvalues
             -----------------

              1      
    1  -20.5539
    2   -1.3508
    3   -0.7249
    4   -0.5475
    5   -0.4980
    6    0.2063
    7    0.3022
    8    1.1053
    9    1.1562
   10    1.1673
   11    1.2050
   12    1.3883
   13    1.6754

                       ROHF Final Molecular Orbital Analysis
                       -------------------------------------

 Vector    2  Occ=2.000000D+00  E=-1.350783D+00  Symmetry=a1
              MO Center= -8.7D-19,  1.7D-17, -9.5D-02, r^2= 5.1D-01
   Bfn.  Coefficient  Atom+Function         Bfn.  Coefficient  Atom+Function  
  ----- ------------  ---------------      ----- ------------  ---------------
     6      0.480812  1 O  s                  2      0.470189  1 O  s          
     1     -0.213202  1 O  s          

 Vector    3  Occ=2.000000D+00  E=-7.249286D-01  Symmetry=b1
              MO Center=  4.9D-17,  3.2D-50, -1.2D-01, r^2= 7.9D-01
   Bfn.  Coefficient  Atom+Function         Bfn.  Coefficient  Atom+Function  
  ----- ------------  ---------------      ----- ------------  ---------------
     3      0.503910  1 O  px                10     -0.264925  2 H  s          
    12      0.264925  3 H  s                  7      0.263345  1 O  px         

 Vector    4  Occ=2.000000D+00  E=-5.474694D-01  Symmetry=a1
              MO Center=  6.9D-18,  3.3D-19,  1.8D-01, r^2= 6.7D-01
   Bfn.  Coefficient  Atom+Function         Bfn.  Coefficient  Atom+Function  
  ----- ------------  ---------------      ----- ------------  ---------------
     5      0.560483  1 O  pz                 9      0.419186  1 O  pz         
     6      0.288630  1 O  s                  2      0.170166  1 O  s          

 Vector    5  Occ=2.000000D+00  E=-4.980154D-01  Symmetry=b2
              MO Center=  1.6D-32, -1.6D-17,  8.2D-02, r^2= 6.0D-01
   Bfn.  Coefficient  Atom+Function         Bfn.  Coefficient  Atom+Function  
  ----- ------------  ---------------      ----- ------------  ---------------
     4      0.640197  1 O  py                 8      0.511536  1 O  py         

 Vector    6  Occ=0.000000D+00  E= 2.062806D-01  Symmetry=a1
              MO Center=  0.0D+00, -4.2D-18, -5.9D-01, r^2= 2.6D+00
   Bfn.  Coefficient  Atom+Function         Bfn.  Coefficient  Atom+Function  
  ----- ------------  ---------------      ----- ------------  ---------------
     6      1.206311  1 O  s                 11     -1.002748  2 H  s          
    13     -1.002748  3 H  s                  9     -0.444883  1 O  pz         
     5     -0.217198  1 O  pz         

 Vector    7  Occ=0.000000D+00  E= 3.022117D-01  Symmetry=b1
              MO Center= -6.7D-16, -4.9D-32, -6.0D-01, r^2= 2.8D+00
   Bfn.  Coefficient  Atom+Function         Bfn.  Coefficient  Atom+Function  
  ----- ------------  ---------------      ----- ------------  ---------------
    11      1.383947  2 H  s                 13     -1.383947  3 H  s          
     7      0.843577  1 O  px                 3      0.331146  1 O  px         

 Vector    8  Occ=0.000000D+00  E= 1.105350D+00  Symmetry=b1
              MO Center=  1.4D-17, -1.2D-32, -9.2D-02, r^2= 1.5D+00
   Bfn.  Coefficient  Atom+Function         Bfn.  Coefficient  Atom+Function  
  ----- ------------  ---------------      ----- ------------  ---------------
    10      1.000488  2 H  s                 12     -1.000488  3 H  s          
     7      0.824175  1 O  px                11     -0.423451  2 H  s          
    13      0.423451  3 H  s          

 Vector    9  Occ=0.000000D+00  E= 1.156170D+00  Symmetry=a1
              MO Center= -4.4D-17,  5.7D-18, -5.0D-01, r^2= 1.2D+00
   Bfn.  Coefficient  Atom+Function         Bfn.  Coefficient  Atom+Function  
  ----- ------------  ---------------      ----- ------------  ---------------
    10      1.001174  2 H  s                 12      1.001174  3 H  s          
    11     -0.500059  2 H  s                 13     -0.500059  3 H  s          
     2     -0.313271  1 O  s                  9      0.307428  1 O  pz         
     5      0.277049  1 O  pz         

 Vector   10  Occ=0.000000D+00  E= 1.167263D+00  Symmetry=b2
              MO Center=  2.9D-34, -3.8D-15,  8.2D-02, r^2= 1.1D+00
   Bfn.  Coefficient  Atom+Function         Bfn.  Coefficient  Atom+Function  
  ----- ------------  ---------------      ----- ------------  ---------------
     8     -1.036522  1 O  py                 4      0.962390  1 O  py         

 Vector   11  Occ=0.000000D+00  E= 1.204950D+00  Symmetry=a1
              MO Center=  1.0D-17,  3.0D-15,  3.6D-01, r^2= 1.1D+00
   Bfn.  Coefficient  Atom+Function         Bfn.  Coefficient  Atom+Function  
  ----- ------------  ---------------      ----- ------------  ---------------
     9      1.160473  1 O  pz                 5     -0.941989  1 O  pz         
     2     -0.232291  1 O  s                 11      0.168136  2 H  s          
    13      0.168136  3 H  s          

 Vector   12  Occ=0.000000D+00  E= 1.388273D+00  Symmetry=b1
              MO Center=  2.1D-16, -7.7D-33,  4.7D-02, r^2= 1.4D+00
   Bfn.  Coefficient  Atom+Function         Bfn.  Coefficient  Atom+Function  
  ----- ------------  ---------------      ----- ------------  ---------------
     7      1.596636  1 O  px                 3     -1.038341  1 O  px         
    11      0.911173  2 H  s                 13     -0.911173  3 H  s          

 Vector   13  Occ=0.000000D+00  E= 1.675418D+00  Symmetry=a1
              MO Center=  6.9D-17,  7.3D-16, -2.1D-01, r^2= 1.2D+00
   Bfn.  Coefficient  Atom+Function         Bfn.  Coefficient  Atom+Function  
  ----- ------------  ---------------      ----- ------------  ---------------
     6      2.744170  1 O  s                  2     -1.703051  1 O  s          
     9     -0.725980  1 O  pz                11     -0.646026  2 H  s          
    13     -0.646026  3 H  s                 10     -0.360206  2 H  s          
    12     -0.360206  3 H  s                  5      0.180802  1 O  pz         


 center of mass
 --------------
 x =   0.00000000 y =   0.00000000 z =   0.04099326

 moments of inertia (a.u.)
 ------------------
           1.826527868129           0.000000000000           0.000000000000
           0.000000000000           6.300685742889           0.000000000000
           0.000000000000           0.000000000000           4.474157874760

  Mulliken analysis of the total density
  --------------------------------------

    Atom       Charge   Shell Charges
 -----------   ------   -------------------------------------------------------
    1 O    8     8.81   2.00  0.90  2.91  0.98  2.02
    2 H    1     0.59   0.50  0.09
    3 H    1     0.59   0.50  0.09

       Multipole analysis of the density wrt the origin
       ------------------------------------------------

     L   x y z        total         open         nuclear
     -   - - -        -----         ----         -------
     0   0 0 0     -0.000000      0.000000     10.000000

     1   1 0 0     -0.000000      0.000000      0.000000
     1   0 1 0     -0.000000      0.000000      0.000000
     1   0 0 1     -0.982936      0.000000     -0.479844

     2   2 0 0     -2.886503      0.000000      4.439419
     2   1 1 0      0.000000      0.000000      0.000000
     2   1 0 1     -0.000000      0.000000      0.000000
     2   0 2 0     -5.354030      0.000000      0.000000
     2   0 1 1      0.000000      0.000000      0.000000
     2   0 0 2     -4.595731      0.000000      1.655613


 Parallel integral file used       1 records with       0 large values

 Line search: 
     step= 1.00 grad=-3.1D-03 hess= 1.6D-03 energy=    -75.985340 mode=accept  
 new step= 1.00                   predicted energy=    -75.985340
  no constraints, skipping    0.0000000000000000     
  no constraints, skipping    0.0000000000000000     
  no constraints, skipping    0.0000000000000000     
  no constraints, skipping    0.0000000000000000     

          --------
          Step   1
          --------


                         Geometry "geometry" -> "geometry"
                         ---------------------------------

 Output coordinates in angstroms (scale by  1.889725989 to convert to a.u.)

  No.       Tag          Charge          X              Y              Z
 ---- ---------------- ---------- -------------- -------------- --------------
    1 O                    8.0000     0.00000000     0.00000000     0.08151559
    2 H                    1.0000    -0.78840479     0.00000000    -0.45302349
    3 H                    1.0000     0.78840479     0.00000000    -0.45302349

      Atomic Mass 
      ----------- 

      O                 15.994910
      H                  1.007825


 Effective nuclear repulsion energy (a.u.)       9.2243830200

            Nuclear Dipole moment (a.u.) 
            ----------------------------
        X                 Y               Z
 ---------------- ---------------- ----------------
     0.0000000000     0.0000000000    -0.4798435544

      Symmetry information
      --------------------

 Group name             C2v       
 Group number             16
 Group order               4
 No. of unique centers     2

      Symmetry unique atoms

     1    2

                                 NWChem SCF Module
                                 -----------------



  ao basis        = "ao basis"
  functions       =    13
  atoms           =     3
  closed shells   =     5
  open shells     =     0
  charge          =   0.00
  wavefunction    = RHF 
  input vectors   = ./h2o.movecs
  output vectors  = ./h2o.movecs
  use symmetry    = T
  symmetry adapt  = T


 Summary of "ao basis" -> "ao basis" (cartesian)
 ------------------------------------------------------------------------------
       Tag                 Description            Shells   Functions and Types
 ---------------- ------------------------------  ------  ---------------------
 O                           6-31G                   5        9   3s2p
 H                           6-31G                   2        2   2s


      Symmetry analysis of basis
      --------------------------

        a1          7
        a2          0
        b1          4
        b2          2


  The SCF is already converged 

         Total SCF energy =    -75.985339535324

                              NWChem Gradients Module
                              -----------------------



  wavefunction    =   RHF     

  Using symmetry


                         RHF ENERGY GRADIENTS

    atom               coordinates                        gradient
                 x          y          z           x          y          z
   1 O       0.000000   0.000000   0.154042    0.000000   0.000000   0.002802
   2 H      -1.489869   0.000000  -0.856090   -0.003030   0.000000  -0.001401
   3 H       1.489869   0.000000  -0.856090    0.003030   0.000000  -0.001401

                 ----------------------------------------
                 |  Time  |  1-e(secs)   |  2-e(secs)   |
                 ----------------------------------------
                 |  CPU   |       0.00   |       0.01   |
                 ----------------------------------------
                 |  WALL  |       0.00   |       0.01   |
                 ----------------------------------------
  no constraints, skipping    0.0000000000000000     

  Step       Energy      Delta E   Gmax     Grms     Xrms     Xmax   Walltime
  ---- ---------------- -------- -------- -------- -------- -------- --------
@    1     -75.98533954 -1.5D-03  0.00329  0.00271  0.03968  0.06972      0.6
                                                                    



                                Z-matrix (autoz)
                                -------- 

 Units are Angstrom for bonds and degrees for angles

      Type          Name      I     J     K     L     M      Value     Gradient
      ----------- --------  ----- ----- ----- ----- ----- ---------- ----------
    1 Stretch                  1     2                       0.95253    0.00329
    2 Stretch                  1     3                       0.95253    0.00329
    3 Bend                     2     1     3               111.72540    0.00052

  no constraints, skipping    0.0000000000000000     
  no constraints, skipping    0.0000000000000000     
  no constraints, skipping    0.0000000000000000     
  no constraints, skipping    0.0000000000000000     
                                 NWChem SCF Module
                                 -----------------



  ao basis        = "ao basis"
  functions       =    13
  atoms           =     3
  closed shells   =     5
  open shells     =     0
  charge          =   0.00
  wavefunction    = RHF 
  input vectors   = ./h2o.movecs
  output vectors  = ./h2o.movecs
  use symmetry    = T
  symmetry adapt  = T


 Summary of "ao basis" -> "ao basis" (cartesian)
 ------------------------------------------------------------------------------
       Tag                 Description            Shells   Functions and Types
 ---------------- ------------------------------  ------  ---------------------
 O                           6-31G                   5        9   3s2p
 H                           6-31G                   2        2   2s


      Symmetry analysis of basis
      --------------------------

        a1          7
        a2          0
        b1          4
        b2          2


 Forming initial guess at       0.6s


 Loading old vectors from job with title :




      Symmetry analysis of molecular orbitals - initial
      -------------------------------------------------

  Numbering of irreducible representations: 

     1 a1          2 a2          3 b1          4 b2      

  Orbital symmetries:

     1 a1          2 a1          3 b1          4 a1          5 b2      
     6 a1          7 b1          8 b1          9 a1         10 b2      
    11 a1         12 b1         13 a1      


 Starting SCF solution at       0.6s



 ----------------------------------------------
         Quadratically convergent ROHF

 Convergence threshold     :          1.000E-04
 Maximum no. of iterations :           30
 Final Fock-matrix accuracy:          1.000E-07
 ----------------------------------------------


 #quartets = 6.670D+02 #integrals = 1.513D+03 #direct =  0.0% #cached =100.0%


 Integral file          = ./h2o.aoints.0
 Record size in doubles =  65536        No. of integs per rec  =  43688
 Max. records in memory =      3        Max. records in file   =  26840
 No. of bits per label  =      8        No. of bits per value  =     64


              iter       energy          gnorm     gmax       time
             ----- ------------------- --------- --------- --------
                 1      -75.9853337447  1.60D-02  7.07D-03      0.1
                 2      -75.9853514056  1.53D-04  7.54D-05      0.1
                 3      -75.9853514084  2.13D-06  1.58D-06      0.1


       Final RHF  results 
       ------------------ 

         Total SCF energy =    -75.985351408389
      One-electron energy =   -123.151940653728
      Two-electron energy =     37.894841017763
 Nuclear repulsion energy =      9.271748227577

        Time for solution =      0.0s



       Symmetry analysis of molecular orbitals - final
       -----------------------------------------------

  Numbering of irreducible representations: 

     1 a1          2 a2          3 b1          4 b2      

  Orbital symmetries:

     1 a1          2 a1          3 b1          4 a1          5 b2      
     6 a1          7 b1          8 b1          9 a1         10 b2      
    11 a1         12 b1         13 a1      

             Final eigenvalues
             -----------------

              1      
    1  -20.5531
    2   -1.3536
    3   -0.7276
    4   -0.5485
    5   -0.4984
    6    0.2075
    7    0.3034
    8    1.1065
    9    1.1637
   10    1.1672
   11    1.2044
   12    1.3896
   13    1.6762

                       ROHF Final Molecular Orbital Analysis
                       -------------------------------------

 Vector    2  Occ=2.000000D+00  E=-1.353552D+00  Symmetry=a1
              MO Center= -1.3D-18,  1.8D-17, -9.7D-02, r^2= 5.0D-01
   Bfn.  Coefficient  Atom+Function         Bfn.  Coefficient  Atom+Function  
  ----- ------------  ---------------      ----- ------------  ---------------
     6      0.478884  1 O  s                  2      0.469984  1 O  s          
     1     -0.213088  1 O  s          

 Vector    3  Occ=2.000000D+00  E=-7.275628D-01  Symmetry=b1
              MO Center=  2.8D-17, -1.5D-35, -1.2D-01, r^2= 7.8D-01
   Bfn.  Coefficient  Atom+Function         Bfn.  Coefficient  Atom+Function  
  ----- ------------  ---------------      ----- ------------  ---------------
     3      0.504780  1 O  px                10     -0.265866  2 H  s          
    12      0.265866  3 H  s                  7      0.261806  1 O  px         

 Vector    4  Occ=2.000000D+00  E=-5.484894D-01  Symmetry=a1
              MO Center= -4.3D-18,  3.5D-19,  1.9D-01, r^2= 6.7D-01
   Bfn.  Coefficient  Atom+Function         Bfn.  Coefficient  Atom+Function  
  ----- ------------  ---------------      ----- ------------  ---------------
     5      0.560811  1 O  pz                 9      0.418759  1 O  pz         
     6      0.290037  1 O  s                  2      0.170600  1 O  s          

 Vector    5  Occ=2.000000D+00  E=-4.984197D-01  Symmetry=b2
              MO Center=  1.6D-32, -1.6D-17,  8.0D-02, r^2= 6.0D-01
   Bfn.  Coefficient  Atom+Function         Bfn.  Coefficient  Atom+Function  
  ----- ------------  ---------------      ----- ------------  ---------------
     4      0.640148  1 O  py                 8      0.511588  1 O  py         

 Vector    6  Occ=0.000000D+00  E= 2.074699D-01  Symmetry=a1
              MO Center= -1.1D-16, -5.8D-18, -5.9D-01, r^2= 2.6D+00
   Bfn.  Coefficient  Atom+Function         Bfn.  Coefficient  Atom+Function  
  ----- ------------  ---------------      ----- ------------  ---------------
     6      1.214689  1 O  s                 11     -1.006753  2 H  s          
    13     -1.006753  3 H  s                  9     -0.444397  1 O  pz         
     5     -0.215595  1 O  pz         

 Vector    7  Occ=0.000000D+00  E= 3.033845D-01  Symmetry=b1
              MO Center= -1.1D-16,  0.0D+00, -6.0D-01, r^2= 2.8D+00
   Bfn.  Coefficient  Atom+Function         Bfn.  Coefficient  Atom+Function  
  ----- ------------  ---------------      ----- ------------  ---------------
    11      1.393973  2 H  s                 13     -1.393973  3 H  s          
     7      0.844977  1 O  px                 3      0.329634  1 O  px         

 Vector    8  Occ=0.000000D+00  E= 1.106471D+00  Symmetry=b1
              MO Center=  1.4D-17, -1.2D-32, -8.0D-02, r^2= 1.5D+00
   Bfn.  Coefficient  Atom+Function         Bfn.  Coefficient  Atom+Function  
  ----- ------------  ---------------      ----- ------------  ---------------
    10      1.000289  2 H  s                 12     -1.000289  3 H  s          
     7      0.854039  1 O  px                11     -0.402976  2 H  s          
    13      0.402976  3 H  s          

 Vector    9  Occ=0.000000D+00  E= 1.163706D+00  Symmetry=a1
              MO Center= -1.1D-16,  3.9D-18, -5.0D-01, r^2= 1.2D+00
   Bfn.  Coefficient  Atom+Function         Bfn.  Coefficient  Atom+Function  
  ----- ------------  ---------------      ----- ------------  ---------------
    10      1.008242  2 H  s                 12      1.008242  3 H  s          
    11     -0.487638  2 H  s                 13     -0.487638  3 H  s          
     9      0.346890  1 O  pz                 2     -0.320757  1 O  s          
     5      0.253832  1 O  pz         

 Vector   10  Occ=0.000000D+00  E= 1.167154D+00  Symmetry=b2
              MO Center=  2.1D-34, -3.9D-15,  8.0D-02, r^2= 1.1D+00
   Bfn.  Coefficient  Atom+Function         Bfn.  Coefficient  Atom+Function  
  ----- ------------  ---------------      ----- ------------  ---------------
     8     -1.036496  1 O  py                 4      0.962422  1 O  py         

 Vector   11  Occ=0.000000D+00  E= 1.204386D+00  Symmetry=a1
              MO Center= -1.0D-17,  3.1D-15,  3.6D-01, r^2= 1.0D+00
   Bfn.  Coefficient  Atom+Function         Bfn.  Coefficient  Atom+Function  
  ----- ------------  ---------------      ----- ------------  ---------------
     9      1.154200  1 O  pz                 5     -0.949205  1 O  pz         
     2     -0.219989  1 O  s                 11      0.184805  2 H  s          
    13      0.184805  3 H  s          

 Vector   12  Occ=0.000000D+00  E= 1.389562D+00  Symmetry=b1
              MO Center= -7.6D-17, -1.5D-33,  3.6D-02, r^2= 1.4D+00
   Bfn.  Coefficient  Atom+Function         Bfn.  Coefficient  Atom+Function  
  ----- ------------  ---------------      ----- ------------  ---------------
     7      1.586709  1 O  px                 3     -1.040295  1 O  px         
    11      0.923897  2 H  s                 13     -0.923897  3 H  s          

 Vector   13  Occ=0.000000D+00  E= 1.676220D+00  Symmetry=a1
              MO Center=  8.3D-17,  7.6D-16, -2.1D-01, r^2= 1.2D+00
   Bfn.  Coefficient  Atom+Function         Bfn.  Coefficient  Atom+Function  
  ----- ------------  ---------------      ----- ------------  ---------------
     6      2.760201  1 O  s                  2     -1.704914  1 O  s          
     9     -0.728606  1 O  pz                11     -0.652331  2 H  s          
    13     -0.652331  3 H  s                 10     -0.361261  2 H  s          
    12     -0.361261  3 H  s                  5      0.177900  1 O  pz         


 center of mass
 --------------
 x =   0.00000000 y =   0.00000000 z =   0.03932898

 moments of inertia (a.u.)
 ------------------
           1.815694563669           0.000000000000           0.000000000000
           0.000000000000           6.235953146100           0.000000000000
           0.000000000000           0.000000000000           4.420258582431

  Mulliken analysis of the total density
  --------------------------------------

    Atom       Charge   Shell Charges
 -----------   ------   -------------------------------------------------------
    1 O    8     8.81   2.00  0.90  2.92  0.98  2.02
    2 H    1     0.59   0.51  0.09
    3 H    1     0.59   0.51  0.09

       Multipole analysis of the density wrt the origin
       ------------------------------------------------

     L   x y z        total         open         nuclear
     -   - - -        -----         ----         -------
     0   0 0 0     -0.000000      0.000000     10.000000

     1   1 0 0     -0.000000      0.000000      0.000000
     1   0 1 0     -0.000000      0.000000      0.000000
     1   0 0 1     -0.983355      0.000000     -0.493844

     2   2 0 0     -2.900623      0.000000      4.385939
     2   1 1 0      0.000000      0.000000      0.000000
     2   1 0 1     -0.000000      0.000000      0.000000
     2   0 2 0     -5.345839      0.000000      0.000000
     2   0 1 1      0.000000      0.000000      0.000000
     2   0 0 2     -4.587740      0.000000      1.647293


 Parallel integral file used       1 records with       0 large values

 Line search: 
     step= 1.00 grad=-6.3D-05 hess= 5.1D-05 energy=    -75.985351 mode=downhill
 new step= 0.62                   predicted energy=    -75.985359
  no constraints, skipping    0.0000000000000000     
  no constraints, skipping    0.0000000000000000     
  no constraints, skipping    0.0000000000000000     
  no constraints, skipping    0.0000000000000000     

          --------
          Step   2
          --------


                         Geometry "geometry" -> "geometry"
                         ---------------------------------

 Output coordinates in angstroms (scale by  1.889725989 to convert to a.u.)

  No.       Tag          Charge          X              Y              Z
 ---- ---------------- ---------- -------------- -------------- --------------
    1 O                    8.0000     0.00000000     0.00000000     0.08086439
    2 H                    1.0000    -0.78546884     0.00000000    -0.45269789
    3 H                    1.0000     0.78546884     0.00000000    -0.45269789

      Atomic Mass 
      ----------- 

      O                 15.994910
      H                  1.007825


 Effective nuclear repulsion energy (a.u.)       9.2535132388

            Nuclear Dipole moment (a.u.) 
            ----------------------------
        X                 Y               Z
 ---------------- ---------------- ----------------
     0.0000000000     0.0000000000    -0.4884576731

      Symmetry information
      --------------------

 Group name             C2v       
 Group number             16
 Group order               4
 No. of unique centers     2

      Symmetry unique atoms

     1    2

                                 NWChem SCF Module
                                 -----------------



  ao basis        = "ao basis"
  functions       =    13
  atoms           =     3
  closed shells   =     5
  open shells     =     0
  charge          =   0.00
  wavefunction    = RHF 
  input vectors   = ./h2o.movecs
  output vectors  = ./h2o.movecs
  use symmetry    = T
  symmetry adapt  = T


 Summary of "ao basis" -> "ao basis" (cartesian)
 ------------------------------------------------------------------------------
       Tag                 Description            Shells   Functions and Types
 ---------------- ------------------------------  ------  ---------------------
 O                           6-31G                   5        9   3s2p
 H                           6-31G                   2        2   2s


      Symmetry analysis of basis
      --------------------------

        a1          7
        a2          0
        b1          4
        b2          2


 Forming initial guess at       0.8s


 Loading old vectors from job with title :




      Symmetry analysis of molecular orbitals - initial
      -------------------------------------------------

  Numbering of irreducible representations: 

     1 a1          2 a2          3 b1          4 b2      

  Orbital symmetries:

     1 a1          2 a1          3 b1          4 a1          5 b2      
     6 a1          7 b1          8 b1          9 a1         10 b2      
    11 a1         12 b1         13 a1      


 Starting SCF solution at       0.8s



 ----------------------------------------------
         Quadratically convergent ROHF

 Convergence threshold     :          1.000E-04
 Maximum no. of iterations :           30
 Final Fock-matrix accuracy:          1.000E-07
 ----------------------------------------------


 #quartets = 6.670D+02 #integrals = 1.513D+03 #direct =  0.0% #cached =100.0%


 Integral file          = ./h2o.aoints.0
 Record size in doubles =  65536        No. of integs per rec  =  43688
 Max. records in memory =      3        Max. records in file   =  26840
 No. of bits per label  =      8        No. of bits per value  =     64


              iter       energy          gnorm     gmax       time
             ----- ------------------- --------- --------- --------
                 1      -75.9853564020  6.16D-03  2.69D-03      0.2
                 2      -75.9853590133  1.15D-05  5.80D-06      0.2


       Final RHF  results 
       ------------------ 

         Total SCF energy =    -75.985359013302
      One-electron energy =   -123.120134801127
      Two-electron energy =     37.881262548989
 Nuclear repulsion energy =      9.253513238836

        Time for solution =      0.0s



       Symmetry analysis of molecular orbitals - final
       -----------------------------------------------

  Numbering of irreducible representations: 

     1 a1          2 a2          3 b1          4 b2      

  Orbital symmetries:

     1 a1          2 a1          3 b1          4 a1          5 b2      
     6 a1          7 b1          8 b1          9 a1         10 b2      
    11 a1         12 b1         13 a1      

             Final eigenvalues
             -----------------

              1      
    1  -20.5534
    2   -1.3525
    3   -0.7265
    4   -0.5481
    5   -0.4983
    6    0.2070
    7    0.3029
    8    1.1060
    9    1.1608
   10    1.1672
   11    1.2046
   12    1.3890
   13    1.6759

                       ROHF Final Molecular Orbital Analysis
                       -------------------------------------

 Vector    2  Occ=2.000000D+00  E=-1.352485D+00  Symmetry=a1
              MO Center= -2.6D-18,  1.8D-17, -9.6D-02, r^2= 5.0D-01
   Bfn.  Coefficient  Atom+Function         Bfn.  Coefficient  Atom+Function  
  ----- ------------  ---------------      ----- ------------  ---------------
     6      0.479629  1 O  s                  2      0.470062  1 O  s          
     1     -0.213131  1 O  s          

 Vector    3  Occ=2.000000D+00  E=-7.265495D-01  Symmetry=b1
              MO Center=  3.5D-17,  4.5D-36, -1.2D-01, r^2= 7.9D-01
   Bfn.  Coefficient  Atom+Function         Bfn.  Coefficient  Atom+Function  
  ----- ------------  ---------------      ----- ------------  ---------------
     3      0.504443  1 O  px                10     -0.265505  2 H  s          
    12      0.265505  3 H  s                  7      0.262399  1 O  px         

 Vector    4  Occ=2.000000D+00  E=-5.480985D-01  Symmetry=a1
              MO Center=  2.6D-18,  3.4D-19,  1.9D-01, r^2= 6.7D-01
   Bfn.  Coefficient  Atom+Function         Bfn.  Coefficient  Atom+Function  
  ----- ------------  ---------------      ----- ------------  ---------------
     5      0.560688  1 O  pz                 9      0.418923  1 O  pz         
     6      0.289494  1 O  s                  2      0.170434  1 O  s          

 Vector    5  Occ=2.000000D+00  E=-4.982641D-01  Symmetry=b2
              MO Center=  1.6D-32, -1.6D-17,  8.1D-02, r^2= 6.0D-01
   Bfn.  Coefficient  Atom+Function         Bfn.  Coefficient  Atom+Function  
  ----- ------------  ---------------      ----- ------------  ---------------
     4      0.640167  1 O  py                 8      0.511568  1 O  py         

 Vector    6  Occ=0.000000D+00  E= 2.070155D-01  Symmetry=a1
              MO Center=  0.0D+00, -4.4D-18, -5.9D-01, r^2= 2.6D+00
   Bfn.  Coefficient  Atom+Function         Bfn.  Coefficient  Atom+Function  
  ----- ------------  ---------------      ----- ------------  ---------------
     6      1.211476  1 O  s                 11     -1.005219  2 H  s          
    13     -1.005219  3 H  s                  9     -0.444587  1 O  pz         
     5     -0.216210  1 O  pz         

 Vector    7  Occ=0.000000D+00  E= 3.029361D-01  Symmetry=b1
              MO Center=  7.8D-16,  4.9D-32, -6.0D-01, r^2= 2.8D+00
   Bfn.  Coefficient  Atom+Function         Bfn.  Coefficient  Atom+Function  
  ----- ------------  ---------------      ----- ------------  ---------------
    11      1.390114  2 H  s                 13     -1.390114  3 H  s          
     7      0.844443  1 O  px                 3      0.330216  1 O  px         

 Vector    8  Occ=0.000000D+00  E= 1.106048D+00  Symmetry=b1
              MO Center= -1.4D-17, -6.2D-33, -8.5D-02, r^2= 1.5D+00
   Bfn.  Coefficient  Atom+Function         Bfn.  Coefficient  Atom+Function  
  ----- ------------  ---------------      ----- ------------  ---------------
    10      1.000394  2 H  s                 12     -1.000394  3 H  s          
     7      0.842576  1 O  px                11     -0.410886  2 H  s          
    13      0.410886  3 H  s          

 Vector    9  Occ=0.000000D+00  E= 1.160803D+00  Symmetry=a1
              MO Center=  1.5D-17,  4.7D-18, -5.0D-01, r^2= 1.2D+00
   Bfn.  Coefficient  Atom+Function         Bfn.  Coefficient  Atom+Function  
  ----- ------------  ---------------      ----- ------------  ---------------
    10      1.005465  2 H  s                 12      1.005465  3 H  s          
    11     -0.492709  2 H  s                 13     -0.492709  3 H  s          
     9      0.330258  1 O  pz                 2     -0.317645  1 O  s          
     5      0.263978  1 O  pz         

 Vector   10  Occ=0.000000D+00  E= 1.167196D+00  Symmetry=b2
              MO Center=  2.4D-34, -3.8D-15,  8.1D-02, r^2= 1.1D+00
   Bfn.  Coefficient  Atom+Function         Bfn.  Coefficient  Atom+Function  
  ----- ------------  ---------------      ----- ------------  ---------------
     8     -1.036506  1 O  py                 4      0.962410  1 O  py         

 Vector   11  Occ=0.000000D+00  E= 1.204595D+00  Symmetry=a1
              MO Center=  3.5D-17,  3.1D-15,  3.6D-01, r^2= 1.0D+00
   Bfn.  Coefficient  Atom+Function         Bfn.  Coefficient  Atom+Function  
  ----- ------------  ---------------      ----- ------------  ---------------
     9      1.157184  1 O  pz                 5     -0.946163  1 O  pz         
     2     -0.225153  1 O  s                 11      0.177833  2 H  s          
    13      0.177833  3 H  s          

 Vector   12  Occ=0.000000D+00  E= 1.389049D+00  Symmetry=b1
              MO Center= -1.7D-16, -1.5D-33,  4.0D-02, r^2= 1.4D+00
   Bfn.  Coefficient  Atom+Function         Bfn.  Coefficient  Atom+Function  
  ----- ------------  ---------------      ----- ------------  ---------------
     7      1.590588  1 O  px                 3     -1.039556  1 O  px         
    11      0.919046  2 H  s                 13     -0.919046  3 H  s          

 Vector   13  Occ=0.000000D+00  E= 1.675916D+00  Symmetry=a1
              MO Center=  9.7D-17,  7.5D-16, -2.1D-01, r^2= 1.2D+00
   Bfn.  Coefficient  Atom+Function         Bfn.  Coefficient  Atom+Function  
  ----- ------------  ---------------      ----- ------------  ---------------
     6      2.754039  1 O  s                  2     -1.704202  1 O  s          
     9     -0.727606  1 O  pz                11     -0.649906  2 H  s          
    13     -0.649906  3 H  s                 10     -0.360861  2 H  s          
    12     -0.360861  3 H  s                  5      0.179019  1 O  pz         


 center of mass
 --------------
 x =   0.00000000 y =   0.00000000 z =   0.03996925

 moments of inertia (a.u.)
 ------------------
           1.819858493962           0.000000000000           0.000000000000
           0.000000000000           6.260755679334           0.000000000000
           0.000000000000           0.000000000000           4.440897185372

  Mulliken analysis of the total density
  --------------------------------------

    Atom       Charge   Shell Charges
 -----------   ------   -------------------------------------------------------
    1 O    8     8.81   2.00  0.90  2.91  0.98  2.02
    2 H    1     0.59   0.51  0.09
    3 H    1     0.59   0.51  0.09

       Multipole analysis of the density wrt the origin
       ------------------------------------------------

     L   x y z        total         open         nuclear
     -   - - -        -----         ----         -------
     0   0 0 0     -0.000000      0.000000     10.000000

     1   1 0 0      0.000000      0.000000      0.000000
     1   0 1 0     -0.000000      0.000000      0.000000
     1   0 0 1     -0.983196      0.000000     -0.488458

     2   2 0 0     -2.895233      0.000000      4.406417
     2   1 1 0      0.000000      0.000000      0.000000
     2   1 0 1     -0.000000      0.000000      0.000000
     2   0 2 0     -5.348982      0.000000      0.000000
     2   0 1 1      0.000000      0.000000      0.000000
     2   0 0 2     -4.590806      0.000000      1.650486


 Parallel integral file used       1 records with       0 large values

                              NWChem Gradients Module
                              -----------------------



  wavefunction    =   RHF     

  Using symmetry


                         RHF ENERGY GRADIENTS

    atom               coordinates                        gradient
                 x          y          z           x          y          z
   1 O       0.000000   0.000000   0.152812    0.000000   0.000000  -0.000249
   2 H      -1.484321   0.000000  -0.855475   -0.000045   0.000000   0.000125
   3 H       1.484321   0.000000  -0.855475    0.000045   0.000000   0.000125

                 ----------------------------------------
                 |  Time  |  1-e(secs)   |  2-e(secs)   |
                 ----------------------------------------
                 |  CPU   |       0.00   |       0.01   |
                 ----------------------------------------
                 |  WALL  |       0.00   |       0.01   |
                 ----------------------------------------
  no constraints, skipping    0.0000000000000000     

  Step       Energy      Delta E   Gmax     Grms     Xrms     Xmax   Walltime
  ---- ---------------- -------- -------- -------- -------- -------- --------
@    2     -75.98535901 -1.9D-05  0.00012  0.00008  0.00266  0.00554      0.9
                                     ok       ok                    



                                Z-matrix (autoz)
                                -------- 

 Units are Angstrom for bonds and degrees for angles

      Type          Name      I     J     K     L     M      Value     Gradient
      ----------- --------  ----- ----- ----- ----- ----- ---------- ----------
    1 Stretch                  1     2                       0.94955   -0.00003
    2 Stretch                  1     3                       0.94955   -0.00003
    3 Bend                     2     1     3               111.62413    0.00012

  no constraints, skipping    0.0000000000000000     
  no constraints, skipping    0.0000000000000000     
  no constraints, skipping    0.0000000000000000     
                                 NWChem SCF Module
                                 -----------------



  ao basis        = "ao basis"
  functions       =    13
  atoms           =     3
  closed shells   =     5
  open shells     =     0
  charge          =   0.00
  wavefunction    = RHF 
  input vectors   = ./h2o.movecs
  output vectors  = ./h2o.movecs
  use symmetry    = T
  symmetry adapt  = T


 Summary of "ao basis" -> "ao basis" (cartesian)
 ------------------------------------------------------------------------------
       Tag                 Description            Shells   Functions and Types
 ---------------- ------------------------------  ------  ---------------------
 O                           6-31G                   5        9   3s2p
 H                           6-31G                   2        2   2s


      Symmetry analysis of basis
      --------------------------

        a1          7
        a2          0
        b1          4
        b2          2


 Forming initial guess at       0.9s


 Loading old vectors from job with title :




      Symmetry analysis of molecular orbitals - initial
      -------------------------------------------------

  Numbering of irreducible representations: 

     1 a1          2 a2          3 b1          4 b2      

  Orbital symmetries:

     1 a1          2 a1          3 b1          4 a1          5 b2      
     6 a1          7 b1          8 b1          9 a1         10 b2      
    11 a1         12 b1         13 a1      


 Starting SCF solution at       0.9s



 ----------------------------------------------
         Quadratically convergent ROHF

 Convergence threshold     :          1.000E-04
 Maximum no. of iterations :           30
 Final Fock-matrix accuracy:          1.000E-07
 ----------------------------------------------


 #quartets = 6.670D+02 #integrals = 1.513D+03 #direct =  0.0% #cached =100.0%


 Integral file          = ./h2o.aoints.0
 Record size in doubles =  65536        No. of integs per rec  =  43688
 Max. records in memory =      3        Max. records in file   =  26840
 No. of bits per label  =      8        No. of bits per value  =     64


              iter       energy          gnorm     gmax       time
             ----- ------------------- --------- --------- --------
                 1      -75.9853591069  8.09D-04  6.35D-04      0.2
                 2      -75.9853591759  9.07D-06  4.11D-06      0.2


       Final RHF  results 
       ------------------ 

         Total SCF energy =    -75.985359175896
      One-electron energy =   -123.118749967708
      Two-electron energy =     37.880453483040
 Nuclear repulsion energy =      9.252937308772

        Time for solution =      0.0s



       Symmetry analysis of molecular orbitals - final
       -----------------------------------------------

  Numbering of irreducible representations: 

     1 a1          2 a2          3 b1          4 b2      

  Orbital symmetries:

     1 a1          2 a1          3 b1          4 a1          5 b2      
     6 a1          7 b1          8 b1          9 a1         10 b2      
    11 a1         12 b1         13 a1      

             Final eigenvalues
             -----------------

              1      
    1  -20.5535
    2   -1.3525
    3   -0.7264
    4   -0.5482
    5   -0.4983
    6    0.2070
    7    0.3029
    8    1.1055
    9    1.1612
   10    1.1672
   11    1.2046
   12    1.3889
   13    1.6761

                       ROHF Final Molecular Orbital Analysis
                       -------------------------------------

 Vector    2  Occ=2.000000D+00  E=-1.352528D+00  Symmetry=a1
              MO Center= -2.6D-18, -7.7D-36, -9.6D-02, r^2= 5.0D-01
   Bfn.  Coefficient  Atom+Function         Bfn.  Coefficient  Atom+Function  
  ----- ------------  ---------------      ----- ------------  ---------------
     6      0.479626  1 O  s                  2      0.470052  1 O  s          
     1     -0.213124  1 O  s          

 Vector    3  Occ=2.000000D+00  E=-7.263868D-01  Symmetry=b1
              MO Center= -6.9D-18,  0.0D+00, -1.2D-01, r^2= 7.9D-01
   Bfn.  Coefficient  Atom+Function         Bfn.  Coefficient  Atom+Function  
  ----- ------------  ---------------      ----- ------------  ---------------
     3      0.504456  1 O  px                10     -0.265489  2 H  s          
    12      0.265489  3 H  s                  7      0.262462  1 O  px         

 Vector    4  Occ=2.000000D+00  E=-5.482288D-01  Symmetry=a1
              MO Center=  0.0D+00,  3.4D-19,  1.9D-01, r^2= 6.7D-01
   Bfn.  Coefficient  Atom+Function         Bfn.  Coefficient  Atom+Function  
  ----- ------------  ---------------      ----- ------------  ---------------
     5      0.560584  1 O  pz                 9      0.418757  1 O  pz         
     6      0.289680  1 O  s                  2      0.170548  1 O  s          

 Vector    5  Occ=2.000000D+00  E=-4.982969D-01  Symmetry=b2
              MO Center=  1.6D-32, -1.7D-17,  8.1D-02, r^2= 6.0D-01
   Bfn.  Coefficient  Atom+Function         Bfn.  Coefficient  Atom+Function  
  ----- ------------  ---------------      ----- ------------  ---------------
     4      0.640183  1 O  py                 8      0.511550  1 O  py         

 Vector    6  Occ=0.000000D+00  E= 2.069872D-01  Symmetry=a1
              MO Center= -1.1D-16, -3.3D-18, -5.9D-01, r^2= 2.6D+00
   Bfn.  Coefficient  Atom+Function         Bfn.  Coefficient  Atom+Function  
  ----- ------------  ---------------      ----- ------------  ---------------
     6      1.211188  1 O  s                 11     -1.005112  2 H  s          
    13     -1.005112  3 H  s                  9     -0.444921  1 O  pz         
     5     -0.216360  1 O  pz         

 Vector    7  Occ=0.000000D+00  E= 3.029082D-01  Symmetry=b1
              MO Center=  7.8D-16,  7.4D-32, -6.0D-01, r^2= 2.8D+00
   Bfn.  Coefficient  Atom+Function         Bfn.  Coefficient  Atom+Function  
  ----- ------------  ---------------      ----- ------------  ---------------
    11      1.390065  2 H  s                 13     -1.390065  3 H  s          
     7      0.844232  1 O  px                 3      0.330294  1 O  px         

 Vector    8  Occ=0.000000D+00  E= 1.105491D+00  Symmetry=b1
              MO Center=  0.0D+00, -3.1D-33, -8.5D-02, r^2= 1.5D+00
   Bfn.  Coefficient  Atom+Function         Bfn.  Coefficient  Atom+Function  
  ----- ------------  ---------------      ----- ------------  ---------------
    10      1.000104  2 H  s                 12     -1.000104  3 H  s          
     7      0.841802  1 O  px                11     -0.411566  2 H  s          
    13      0.411566  3 H  s          

 Vector    9  Occ=0.000000D+00  E= 1.161194D+00  Symmetry=a1
              MO Center= -1.3D-17,  1.6D-17, -5.0D-01, r^2= 1.2D+00
   Bfn.  Coefficient  Atom+Function         Bfn.  Coefficient  Atom+Function  
  ----- ------------  ---------------      ----- ------------  ---------------
    10      1.005081  2 H  s                 12      1.005081  3 H  s          
    11     -0.493455  2 H  s                 13     -0.493455  3 H  s          
     9      0.327011  1 O  pz                 2     -0.318112  1 O  s          
     5      0.266918  1 O  pz         

 Vector   10  Occ=0.000000D+00  E= 1.167167D+00  Symmetry=b2
              MO Center=  2.9D-34, -3.8D-15,  8.1D-02, r^2= 1.1D+00
   Bfn.  Coefficient  Atom+Function         Bfn.  Coefficient  Atom+Function  
  ----- ------------  ---------------      ----- ------------  ---------------
     8     -1.036515  1 O  py                 4      0.962399  1 O  py         

 Vector   11  Occ=0.000000D+00  E= 1.204641D+00  Symmetry=a1
              MO Center=  5.2D-18,  3.1D-15,  3.6D-01, r^2= 1.0D+00
   Bfn.  Coefficient  Atom+Function         Bfn.  Coefficient  Atom+Function  
  ----- ------------  ---------------      ----- ------------  ---------------
     9      1.158203  1 O  pz                 5     -0.945351  1 O  pz         
     2     -0.226601  1 O  s                 11      0.176473  2 H  s          
    13      0.176473  3 H  s          

 Vector   12  Occ=0.000000D+00  E= 1.388948D+00  Symmetry=b1
              MO Center=  9.0D-17, -4.6D-33,  4.1D-02, r^2= 1.4D+00
   Bfn.  Coefficient  Atom+Function         Bfn.  Coefficient  Atom+Function  
  ----- ------------  ---------------      ----- ------------  ---------------
     7      1.589938  1 O  px                 3     -1.039518  1 O  px         
    11      0.918972  2 H  s                 13     -0.918972  3 H  s          

 Vector   13  Occ=0.000000D+00  E= 1.676095D+00  Symmetry=a1
              MO Center=  2.4D-16,  7.5D-16, -2.1D-01, r^2= 1.2D+00
   Bfn.  Coefficient  Atom+Function         Bfn.  Coefficient  Atom+Function  
  ----- ------------  ---------------      ----- ------------  ---------------
     6      2.754226  1 O  s                  2     -1.703951  1 O  s          
     9     -0.728986  1 O  pz                11     -0.649574  2 H  s          
    13     -0.649574  3 H  s                 10     -0.361936  2 H  s          
    12     -0.361936  3 H  s                  5      0.179215  1 O  pz         


 center of mass
 --------------
 x =   0.00000000 y =   0.00000000 z =   0.04054883

 moments of inertia (a.u.)
 ------------------
           1.823631788668           0.000000000000           0.000000000000
           0.000000000000           6.261297213339           0.000000000000
           0.000000000000           0.000000000000           4.437665424671

  Mulliken analysis of the total density
  --------------------------------------

    Atom       Charge   Shell Charges
 -----------   ------   -------------------------------------------------------
    1 O    8     8.81   2.00  0.90  2.91  0.98  2.02
    2 H    1     0.59   0.51  0.09
    3 H    1     0.59   0.51  0.09

       Multipole analysis of the density wrt the origin
       ------------------------------------------------

     L   x y z        total         open         nuclear
     -   - - -        -----         ----         -------
     0   0 0 0     -0.000000      0.000000     10.000000

     1   1 0 0      0.000000      0.000000      0.000000
     1   0 1 0      0.000000      0.000000      0.000000
     1   0 0 1     -0.983769      0.000000     -0.483582

     2   2 0 0     -2.897644      0.000000      4.403210
     2   1 1 0      0.000000      0.000000      0.000000
     2   1 0 1      0.000000      0.000000      0.000000
     2   0 2 0     -5.349053      0.000000      0.000000
     2   0 1 1      0.000000      0.000000      0.000000
     2   0 0 2     -4.590483      0.000000      1.653385


 Parallel integral file used       1 records with       0 large values

 Line search: 
     step= 1.00 grad=-3.1D-07 hess= 1.5D-07 energy=    -75.985359 mode=accept  
 new step= 1.00                   predicted energy=    -75.985359
  no constraints, skipping    0.0000000000000000     
  no constraints, skipping    0.0000000000000000     
  no constraints, skipping    0.0000000000000000     

          --------
          Step   3
          --------


                         Geometry "geometry" -> "geometry"
                         ---------------------------------

 Output coordinates in angstroms (scale by  1.889725989 to convert to a.u.)

  No.       Tag          Charge          X              Y              Z
 ---- ---------------- ---------- -------------- -------------- --------------
    1 O                    8.0000     0.00000000     0.00000000     0.08123296
    2 H                    1.0000    -0.78518299     0.00000000    -0.45288218
    3 H                    1.0000     0.78518299     0.00000000    -0.45288218

      Atomic Mass 
      ----------- 

      O                 15.994910
      H                  1.007825


 Effective nuclear repulsion energy (a.u.)       9.2529373088

            Nuclear Dipole moment (a.u.) 
            ----------------------------
        X                 Y               Z
 ---------------- ---------------- ----------------
     0.0000000000     0.0000000000    -0.4835821760

      Symmetry information
      --------------------

 Group name             C2v       
 Group number             16
 Group order               4
 No. of unique centers     2

      Symmetry unique atoms

     1    2

                                 NWChem SCF Module
                                 -----------------



  ao basis        = "ao basis"
  functions       =    13
  atoms           =     3
  closed shells   =     5
  open shells     =     0
  charge          =   0.00
  wavefunction    = RHF 
  input vectors   = ./h2o.movecs
  output vectors  = ./h2o.movecs
  use symmetry    = T
  symmetry adapt  = T


 Summary of "ao basis" -> "ao basis" (cartesian)
 ------------------------------------------------------------------------------
       Tag                 Description            Shells   Functions and Types
 ---------------- ------------------------------  ------  ---------------------
 O                           6-31G                   5        9   3s2p
 H                           6-31G                   2        2   2s


      Symmetry analysis of basis
      --------------------------

        a1          7
        a2          0
        b1          4
        b2          2


  The SCF is already converged 

         Total SCF energy =    -75.985359175896

                              NWChem Gradients Module
                              -----------------------



  wavefunction    =   RHF     

  Using symmetry


                         RHF ENERGY GRADIENTS

    atom               coordinates                        gradient
                 x          y          z           x          y          z
   1 O       0.000000   0.000000   0.153508    0.000000   0.000000  -0.000012
   2 H      -1.483781   0.000000  -0.855823   -0.000003   0.000000   0.000006
   3 H       1.483781   0.000000  -0.855823    0.000003   0.000000   0.000006

                 ----------------------------------------
                 |  Time  |  1-e(secs)   |  2-e(secs)   |
                 ----------------------------------------
                 |  CPU   |       0.00   |       0.01   |
                 ----------------------------------------
                 |  WALL  |       0.00   |       0.01   |
                 ----------------------------------------
  no constraints, skipping    0.0000000000000000     

  Step       Energy      Delta E   Gmax     Grms     Xrms     Xmax   Walltime
  ---- ---------------- -------- -------- -------- -------- -------- --------
@    3     -75.98535918 -1.6D-07  0.00001  0.00000  0.00038  0.00070      1.0
                                     ok       ok       ok       ok  



                                Z-matrix (autoz)
                                -------- 

 Units are Angstrom for bonds and degrees for angles

      Type          Name      I     J     K     L     M      Value     Gradient
      ----------- --------  ----- ----- ----- ----- ----- ---------- ----------
    1 Stretch                  1     2                       0.94963   -0.00000
    2 Stretch                  1     3                       0.94963   -0.00000
    3 Bend                     2     1     3               111.54957    0.00001


      ----------------------
      Optimization converged
      ----------------------


  Step       Energy      Delta E   Gmax     Grms     Xrms     Xmax   Walltime
  ---- ---------------- -------- -------- -------- -------- -------- --------
@    3     -75.98535918 -1.6D-07  0.00001  0.00000  0.00038  0.00070      1.0
                                     ok       ok       ok       ok  



                                Z-matrix (autoz)
                                -------- 

 Units are Angstrom for bonds and degrees for angles

      Type          Name      I     J     K     L     M      Value     Gradient
      ----------- --------  ----- ----- ----- ----- ----- ---------- ----------
    1 Stretch                  1     2                       0.94963   -0.00000
    2 Stretch                  1     3                       0.94963   -0.00000
    3 Bend                     2     1     3               111.54957    0.00001



                         Geometry "geometry" -> "geometry"
                         ---------------------------------

 Output coordinates in angstroms (scale by  1.889725989 to convert to a.u.)

  No.       Tag          Charge          X              Y              Z
 ---- ---------------- ---------- -------------- -------------- --------------
    1 O                    8.0000     0.00000000     0.00000000     0.08123296
    2 H                    1.0000    -0.78518299     0.00000000    -0.45288218
    3 H                    1.0000     0.78518299     0.00000000    -0.45288218

      Atomic Mass 
      ----------- 

      O                 15.994910
      H                  1.007825


 Effective nuclear repulsion energy (a.u.)       9.2529373088

            Nuclear Dipole moment (a.u.) 
            ----------------------------
        X                 Y               Z
 ---------------- ---------------- ----------------
     0.0000000000     0.0000000000    -0.4835821760

      Symmetry information
      --------------------

 Group name             C2v       
 Group number             16
 Group order               4
 No. of unique centers     2

      Symmetry unique atoms

     1    2


                Final and change from initial internal coordinates
                --------------------------------------------------



                                Z-matrix (autoz)
                                -------- 

 Units are Angstrom for bonds and degrees for angles

      Type          Name      I     J     K     L     M      Value       Change
      ----------- --------  ----- ----- ----- ----- ----- ---------- ----------
    1 Stretch                  1     2                       0.94963   -0.00827
    2 Stretch                  1     3                       0.94963   -0.00827
    3 Bend                     2     1     3               111.54957    7.42951

 ==============================================================================
                                internuclear distances
 ------------------------------------------------------------------------------
       center one      |      center two      | atomic units |  angstroms
 ------------------------------------------------------------------------------
    2 H                |   1 O                |     1.79453  |     0.94963
    3 H                |   1 O                |     1.79453  |     0.94963
 ------------------------------------------------------------------------------
                         number of included internuclear distances:          2
 ==============================================================================



 ==============================================================================
                                 internuclear angles
 ------------------------------------------------------------------------------
        center 1       |       center 2       |       center 3       |  degrees
 ------------------------------------------------------------------------------
    2 H                |   1 O                |   3 H                |   111.55
 ------------------------------------------------------------------------------
                            number of included internuclear angles:          1
 ==============================================================================




 Task  times  cpu:        0.2s     wall:        0.9s
 Summary of allocated global arrays
-----------------------------------
  No active global arrays


MA_summarize_allocated_blocks: starting scan ...
MA_summarize_allocated_blocks: scan completed: 0 heap blocks, 0 stack blocks
MA usage statistics:

	allocation statistics:
					      heap	     stack
					      ----	     -----
	current number of blocks	         0	         0
	maximum number of blocks	        20	        29
	current total bytes		         0	         0
	maximum total bytes		   1582032	  22509400
	maximum total K-bytes		      1583	     22510
	maximum total M-bytes		         2	        23


                                NWChem Input Module
                                -------------------




                                     CITATION
                                     --------
                Please cite the following reference when publishing
                           results obtained with NWChem:

          E. Apra, E. J. Bylaska, W. A. de Jong, N. Govind, K. Kowalski,
       T. P. Straatsma, M. Valiev, H. J. J. van Dam, Y. Alexeev, J. Anchell,
       V. Anisimov, F. W. Aquino, R. Atta-Fynn, J. Autschbach, N. P. Bauman,
     J. C. Becca, D. E. Bernholdt, K. Bhaskaran-Nair, S. Bogatko, P. Borowski,
         J. Boschen, J. Brabec, A. Bruner, E. Cauet, Y. Chen, G. N. Chuev,
      C. J. Cramer, J. Daily, M. J. O. Deegan, T. H. Dunning Jr., M. Dupuis,
   K. G. Dyall, G. I. Fann, S. A. Fischer, A. Fonari, H. Fruchtl, L. Gagliardi,
      J. Garza, N. Gawande, S. Ghosh, K. Glaesemann, A. W. Gotz, J. Hammond,
       V. Helms, E. D. Hermes, K. Hirao, S. Hirata, M. Jacquelin, L. Jensen,
   B. G. Johnson, H. Jonsson, R. A. Kendall, M. Klemm, R. Kobayashi, V. Konkov,
      S. Krishnamoorthy, M. Krishnan, Z. Lin, R. D. Lins, R. J. Littlefield,
      A. J. Logsdail, K. Lopata, W. Ma, A. V. Marenich, J. Martin del Campo,
   D. Mejia-Rodriguez, J. E. Moore, J. M. Mullin, T. Nakajima, D. R. Nascimento,
    J. A. Nichols, P. J. Nichols, J. Nieplocha, A. Otero-de-la-Roza, B. Palmer,
    A. Panyala, T. Pirojsirikul, B. Peng, R. Peverati, J. Pittner, L. Pollack,
   R. M. Richard, P. Sadayappan, G. C. Schatz, W. A. Shelton, D. W. Silverstein,
   D. M. A. Smith, T. A. Soares, D. Song, M. Swart, H. L. Taylor, G. S. Thomas,
            V. Tipparaju, D. G. Truhlar, K. Tsemekhman, T. Van Voorhis,
      A. Vazquez-Mayagoitia, P. Verma, O. Villa, A. Vishnu, K. D. Vogiatzis,
        D. Wang, J. H. Weare, M. J. Williamson, T. L. Windus, K. Wolinski,
        A. T. Wong, Q. Wu, C. Yang, Q. Yu, M. Zacharias, Z. Zhang, Y. Zhao,
                                and R. J. Harrison
                        "NWChem: Past, present, and future
                         J. Chem. Phys. 152, 184102 (2020)
                               doi:10.1063/5.0004997

                                      AUTHORS
                                      -------
  E. Apra, E. J. Bylaska, N. Govind, K. Kowalski, M. Valiev, D. Mejia-Rodriguez,
       A. Kunitsa, N. P. Bauman, A. Panyala, W. A. de Jong, T. P. Straatsma,
   H. J. J. van Dam, D. Wang, T. L. Windus, J. Hammond, J. Autschbach, A. Woods,
    K. Bhaskaran-Nair, J. Brabec, K. Lopata, S. A. Fischer, S. Krishnamoorthy,
     M. Jacquelin, W. Ma, M. Klemm, O. Villa, Y. Chen, V. Anisimov, F. Aquino,
     S. Hirata, M. T. Hackler, E. Hermes, L. Jensen, J. E. Moore, J. C. Becca,
      V. Konjkov, T. Risthaus, M. Malagoli, A. Marenich, A. Otero-de-la-Roza,
        J. Mullin, P. Nichols, R. Peverati, J. Pittner, Y. Zhao, P.-D. Fan,
        A. Fonari, M. J. Williamson, R. J. Harrison, J. R. Rehr, M. Dupuis,
     D. Silverstein, D. M. A. Smith, J. Nieplocha, V. Tipparaju, M. Krishnan,
     B. E. Van Kuiken, A. Vazquez-Mayagoitia, M. Swart, Q. Wu, T. Van Voorhis,
     A. A. Auer, M. Nooijen, L. D. Crosby, E. Brown, G. Cisneros, G. I. Fann,
   H. Fruchtl, J. Garza, K. Hirao, R. A. Kendall, J. A. Nichols, K. Tsemekhman,
    K. Wolinski, J. Anchell, D. E. Bernholdt, P. Borowski, T. Clark, D. Clerc,
   H. Dachsel, M. J. O. Deegan, K. Dyall, D. Elwood, E. Glendening, M. Gutowski,
   A. C. Hess, J. Jaffe, B. G. Johnson, J. Ju, R. Kobayashi, R. Kutteh, Z. Lin,
   R. Littlefield, X. Long, B. Meng, T. Nakajima, S. Niu, L. Pollack, M. Rosing,
   K. Glaesemann, G. Sandrone, M. Stave, H. Taylor, G. Thomas, J. H. van Lenthe,
                               A. T. Wong, Z. Zhang.

 Total times  cpu:        0.2s     wall:        1.0s
